38   
Iteration 0 Energy -1070.18673067
O       -0.2913020000    2.7033190000    2.5082530000
C       -0.0395500000    1.7509860000    1.7249080000
O       -1.0037280000    0.9308560000    1.1549370000
C       -0.3946400000   -0.0620610000    0.3119420000
C        1.0824470000    0.2755360000    0.4311860000
C        1.2644970000    1.3478470000    1.2743500000
C        2.5245710000    1.8760880000    1.5476890000
C        3.6364120000    1.2797960000    0.9312390000
C        3.4647890000    0.1846650000    0.0605750000
C        2.1801810000   -0.3232410000   -0.1988910000
C       -0.8280990000    0.1174620000   -1.1416410000
C       -0.6227760000   -0.9151990000   -2.0793550000
C       -0.9786450000   -0.7425290000   -3.4195000000
C       -1.5292270000    0.4697970000   -3.8508170000
C       -1.7168500000    1.5090120000   -2.9363390000
C       -1.3626440000    1.3407450000   -1.5945400000
O       -1.8881320000    0.6530310000   -5.1842670000
C       -0.7764910000   -1.4358070000    0.8665030000
C        0.1205180000   -2.2322360000    1.6119750000
C       -0.2852470000   -3.4649560000    2.1317520000
C       -1.5930000000   -3.9157770000    1.9400320000
C       -2.5020610000   -3.1231630000    1.2309180000
C       -2.1013770000   -1.8902670000    0.7097020000
O       -1.9804370000   -5.1474050000    2.4629960000
H        2.6439690000    2.7225190000    2.2114270000
H        4.6292760000    1.6653770000    1.1228330000
H        4.3270380000   -0.2672560000   -0.4121060000
H        2.0484530000   -1.1647520000   -0.8652880000
H       -0.1879400000   -1.8581810000   -1.7731350000
H       -0.8213730000   -1.5504900000   -4.1226490000
H       -2.1329650000    2.4521610000   -3.2671920000
H       -1.5047630000    2.1719210000   -0.9165990000
H       -1.7631850000   -0.0808190000   -5.8718350000
H        1.1336760000   -1.9106470000    1.8067810000
H        0.4176030000   -4.0681440000    2.6924610000
H       -3.5214720000   -3.4582620000    1.0877820000
H       -2.8277580000   -1.2873650000    0.1787600000
H       -2.9224160000   -5.5010650000    2.3425780000
38   
Iteration 1 Energy -1070.21185442
O       -0.4419298794    2.6169698943    2.3800485087
C       -0.0842288808    1.7247296701    1.6644326777
O       -0.9926684635    0.9078639835    1.0853995760
C       -0.3499594216   -0.1004059183    0.2714325371
C        1.1380906328    0.2044259260    0.3831409970
C        1.2460982486    1.2991162913    1.2284368957
C        2.4770829355    1.8629255954    1.5428782465
C        3.5982198261    1.2796143748    0.9721890837
C        3.4704452586    0.1796442649    0.1158036153
C        2.2450870588   -0.3893908051   -0.2101794832
C       -0.8114276332    0.0803857401   -1.1653955225
C       -0.6604836641   -0.9419087361   -2.0990836956
C       -1.0170996997   -0.7430621743   -3.4262391729
C       -1.5440064402    0.4873938899   -3.8190494649
C       -1.7169085019    1.5218645194   -2.9097041915
C       -1.3430326452    1.2942751579   -1.5911802597
O       -1.9201020551    0.7368972527   -5.0902381283
C       -0.7442705819   -1.4546602133    0.8347599611
C        0.1248973679   -2.2553756507    1.5714081166
C       -0.2641228992   -3.4653634918    2.1339722580
C       -1.5805033888   -3.8634263169    1.9485994252
C       -2.4863088886   -3.0828187321    1.2284385144
C       -2.0598006507   -1.8851732057    0.6745789566
O       -1.9308211554   -5.0415806483    2.5017261054
H        2.5447681398    2.7261409995    2.2073252539
H        4.5884600527    1.6853375296    1.1886144681
H        4.3749828981   -0.2496507246   -0.3202524415
H        2.1664520325   -1.2434584676   -0.8849456284
H       -0.2673970643   -1.9125422236   -1.7908051893
H       -0.8947557524   -1.5469922156   -4.1561077232
H       -2.1352300986    2.4766488212   -3.2322840974
H       -1.4796258396    2.0973904070   -0.8664379661
H       -1.7565341718   -0.0475613529   -5.6184717667
H        1.1546518818   -1.9322646310    1.7260835505
H        0.4271795632   -4.0851472154    2.7072639863
H       -3.5205796969   -3.4124089468    1.1032457554
H       -2.7654454327   -1.2709575141    0.1122576224
H       -2.8575131502   -5.2054065332    2.3122730516
38   
Iteration 2 Energy -1070.21098073
O       -0.3572813486    2.6181878842    2.4764249443
C       -0.0794197532    1.7354388162    1.7343762969
O       -0.9699936689    0.9104023811    1.1259436192
C       -0.3563842293   -0.0907210013    0.2820190628
C        1.1154824779    0.2447561775    0.4044419096
C        1.2587556128    1.3168077001    1.2649951558
C        2.5059638421    1.8578094977    1.5581277219
C        3.6219225439    1.2889965307    0.9587251897
C        3.4998925626    0.2072371040    0.0790404855
C        2.2360793510   -0.3072264956   -0.1950829109
C       -0.8283769073    0.1109487003   -1.1528418656
C       -0.6603089588   -0.9118527144   -2.0824148826
C       -1.0014182547   -0.7536929272   -3.4194326362
C       -1.5424783604    0.4487934732   -3.8717664319
C       -1.7118913391    1.4515740986   -2.9189933587
C       -1.3709873486    1.3193661856   -1.5791543923
O       -1.9100290243    0.6851676952   -5.1469641182
C       -0.7387482679   -1.4536174275    0.8362876253
C        0.1467046371   -2.2532669300    1.5506557606
C       -0.3172603497   -3.4536496037    2.0760281601
C       -1.6257093517   -3.9119751258    1.9448814455
C       -2.4991015664   -3.0868780435    1.2349585757
C       -2.0560950566   -1.8897675376    0.6945440430
O       -1.9699288456   -5.0929251568    2.4937521270
H        2.5867738532    2.7075479586    2.2406385363
H        4.6157807967    1.6923997399    1.1698356352
H        4.3899041585   -0.2244579247   -0.3897998933
H        2.1339121028   -1.1457306937   -0.8866813570
H       -0.2612527511   -1.8747090038   -1.7523887207
H       -0.8564327984   -1.5793279971   -4.1237547971
H       -2.1448492740    2.3909595321   -3.2663472468
H       -1.5396009680    2.1358538484   -0.8742777222
H       -1.7279814374   -0.1026938856   -5.6558813447
H        1.1859481598   -1.9520101657    1.7026025454
H        0.3708528034   -4.0895853167    2.6347780855
H       -3.5426631983   -3.3921913231    1.1070435329
H       -2.7621334388   -1.2637610650    0.1435204561
H       -2.8970939735   -5.2407640954    2.3155055156
38   
Iteration 3 Energy -1070.21535288
O       -0.3867932744    2.6130215912    2.4532192550
C       -0.0820692005    1.7264307600    1.7128619575
O       -0.9824229441    0.9049643373    1.1080565041
C       -0.3653728490   -0.0992713274    0.2730940580
C        1.1071522265    0.2374260134    0.4019948473
C        1.2640298005    1.3123804656    1.2572615109
C        2.5093859293    1.8550252386    1.5559711186
C        3.6308816159    1.2845457672    0.9649241905
C        3.4791286440    0.1995202424    0.0921479650
C        2.2225445224   -0.3291969504   -0.1985658297
C       -0.8272106692    0.0963305126   -1.1667340385
C       -0.6540027219   -0.9265864212   -2.0984703602
C       -0.9990742167   -0.7373032983   -3.4314371099
C       -1.5362361644    0.4795021342   -3.8571651824
C       -1.7230867665    1.5049696610   -2.9288124789
C       -1.3679929630    1.3080913252   -1.6007562831
O       -1.8949819695    0.7085832082   -5.1412100715
C       -0.7520886233   -1.4592305699    0.8356664109
C        0.1296643275   -2.2607518487    1.5625164771
C       -0.2763111084   -3.4686502359    2.1176939227
C       -1.5957059107   -3.8926799396    1.9616799437
C       -2.4916827376   -3.0918646201    1.2467756032
C       -2.0720541231   -1.8928150631    0.6903451286
O       -1.9564218997   -5.0722113130    2.5141207134
H        2.5862677345    2.7062613718    2.2350533291
H        4.6273896626    1.6801131115    1.1726453869
H        4.3657813042   -0.2377762956   -0.3726458018
H        2.1236077817   -1.1699108248   -0.8872223056
H       -0.2571369900   -1.8931040129   -1.7813291817
H       -0.8588445070   -1.5496200392   -4.1509411686
H       -2.1525827152    2.4498611324   -3.2660829133
H       -1.5300277350    2.1105200233   -0.8813569195
H       -1.7168103757   -0.0764991259   -5.6739769557
H        1.1625969575   -1.9423035788    1.7061339599
H        0.4165430975   -4.0951937926    2.6817828406
H       -3.5304164259   -3.4143691501    1.1273600774
H       -2.7832794236   -1.2781793363    0.1357097176
H       -2.8915919809   -5.2401494028    2.3421526295
38   
Iteration 4 Energy -1070.21508429
O       -0.4203261698    2.5985409347    2.4455177047
C       -0.0869673395    1.7197594389    1.7057806762
O       -0.9862393810    0.9046981244    1.1008986283
C       -0.3515071555   -0.0966288370    0.2727587118
C        1.1290147247    0.2261560628    0.3891298288
C        1.2571232490    1.3021017289    1.2514963425
C        2.4904652723    1.8568015140    1.5664000218
C        3.6030541798    1.2768201412    0.9686829505
C        3.4837857234    0.1937850597    0.0889411818
C        2.2394853623   -0.3493489720   -0.2194821825
C       -0.8166018569    0.0929417881   -1.1640529321
C       -0.6488837583   -0.9237295617   -2.1049962114
C       -0.9984231027   -0.7491362300   -3.4390134949
C       -1.5381137251    0.4718940697   -3.8458824794
C       -1.7203962810    1.4952623827   -2.9147734965
C       -1.3595133611    1.3067601864   -1.5876419224
O       -1.9057479672    0.7084923240   -5.1259590476
C       -0.7400418175   -1.4538081917    0.8366862445
C        0.1455622144   -2.2540817313    1.5595990688
C       -0.2749768920   -3.4586994857    2.1101855341
C       -1.5968109986   -3.8743815728    1.9561643736
C       -2.5011892294   -3.0792546487    1.2468792935
C       -2.0624192887   -1.8834875096    0.6978514357
O       -1.9571742235   -5.0532567149    2.5099466439
H        2.5625530766    2.7064128659    2.2476218148
H        4.5954086565    1.6760662199    1.1836415289
H        4.3811528556   -0.2301175374   -0.3659097905
H        2.1479823330   -1.1885193109   -0.9111309004
H       -0.2462563927   -1.8877642359   -1.7900717292
H       -0.8613213880   -1.5603293660   -4.1595610276
H       -2.1526562155    2.4383869807   -3.2510607572
H       -1.5157816404    2.1093181637   -0.8671161249
H       -1.7331777059   -0.0705089094   -5.6706526835
H        1.1800776895   -1.9417123229    1.7019150986
H        0.4124969436   -4.0919306115    2.6720156297
H       -3.5410562767   -3.3967850697    1.1288801369
H       -2.7689475823   -1.2619708604    0.1460765819
H       -2.8940131300   -5.2246444163    2.3469213350
38   
Iteration 5 Energy -1070.21563909
O       -0.4027993232    2.6005912568    2.4539266425
C       -0.0859566791    1.7211699727    1.7109165921
O       -0.9839501816    0.9067293152    1.1003876536
C       -0.3557351800   -0.0966458920    0.2700538655
C        1.1215215765    0.2307442854    0.3912098988
C        1.2583263293    1.3026424850    1.2544131722
C        2.4972033299    1.8495790788    1.5644083701
C        3.6203788465    1.2826633139    0.9735167415
C        3.4825223036    0.2024666053    0.0929923764
C        2.2355699605   -0.3371344009   -0.2144398595
C       -0.8206782158    0.0938985243   -1.1671015653
C       -0.6470137704   -0.9280916273   -2.0995397013
C       -0.9992592566   -0.7413016373   -3.4311382637
C       -1.5403500479    0.4734579851   -3.8547022059
C       -1.7245643336    1.4961467409   -2.9240140751
C       -1.3645614461    1.3050510074   -1.5971221009
O       -1.9046409474    0.7046614233   -5.1357650161
C       -0.7438857415   -1.4541980524    0.8343145615
C        0.1372393948   -2.2607178711    1.5550186349
C       -0.2768073358   -3.4664396800    2.1082248539
C       -1.5978556742   -3.8847384097    1.9603340034
C       -2.4918057715   -3.0776581821    1.2512432664
C       -2.0669136721   -1.8795225224    0.6966312620
O       -1.9600373298   -5.0625725328    2.5131282586
H        2.5672061434    2.6973755360    2.2480912595
H        4.6138505451    1.6806599635    1.1887798152
H        4.3758877509   -0.2251543474   -0.3669011013
H        2.1443096025   -1.1740913913   -0.9086653753
H       -0.2443044681   -1.8924974650   -1.7839768849
H       -0.8604262130   -1.5532820936   -4.1503737533
H       -2.1573638914    2.4388600932   -3.2612162230
H       -1.5231805970    2.1079688314   -0.8773085244
H       -1.7276886946   -0.0772497283   -5.6712456279
H        1.1726337171   -1.9492781248    1.6946227242
H        0.4137589737   -4.0989140306    2.6673327014
H       -3.5322188445   -3.3940632107    1.1356115646
H       -2.7768132583   -1.2589373733    0.1473334410
H       -2.8963342987   -5.2253414476    2.3500647293
38   
Iteration 6 Energy -1070.21557655
O       -0.3977240714    2.5967772363    2.4640061410
C       -0.0846705349    1.7195606883    1.7177192657
O       -0.9840943283    0.9085425746    1.1014287191
C       -0.3614965793   -0.0955533353    0.2690034552
C        1.1123078811    0.2384536763    0.3979092803
C        1.2626898844    1.3058010402    1.2632157735
C        2.5048627182    1.8476186899    1.5720625012
C        3.6228980971    1.2765021475    0.9748632087
C        3.4842446995    0.1995886016    0.0903960560
C        2.2278890734   -0.3246928590   -0.2068866382
C       -0.8247444106    0.0953372149   -1.1695917093
C       -0.6481258383   -0.9245226573   -2.1036387258
C       -0.9942328960   -0.7466996944   -3.4379545837
C       -1.5365077437    0.4694795931   -3.8560526855
C       -1.7272509648    1.4948803309   -2.9289477785
C       -1.3705401333    1.3050097991   -1.6010196712
O       -1.8984479795    0.7006664827   -5.1371879985
C       -0.7482473503   -1.4540327154    0.8334493476
C        0.1388445584   -2.2582775289    1.5488004094
C       -0.2720285513   -3.4645899245    2.1028506774
C       -1.5948437339   -3.8797601562    1.9580411262
C       -2.4992722119   -3.0788195353    1.2550459219
C       -2.0714425436   -1.8814956520    0.7017233567
O       -1.9518895483   -5.0579176362    2.5118651959
H        2.5809962962    2.6930485966    2.2584020968
H        4.6183372217    1.6702903969    1.1890711349
H        4.3734684243   -0.2318387858   -0.3749176587
H        2.1295890502   -1.1585738777   -0.9034357377
H       -0.2446803333   -1.8875729661   -1.7849329557
H       -0.8516931782   -1.5591065183   -4.1566176023
H       -2.1616533338    2.4360185128   -3.2694115062
H       -1.5332567014    2.1074105243   -0.8816310838
H       -1.7180823368   -0.0811303257   -5.6713992349
H        1.1746249106   -1.9452114564    1.6832166135
H        0.4203037611   -4.0983530078    2.6588499574
H       -3.5402014218   -3.3966661897    1.1442564420
H       -2.7828606497   -1.2597534928    0.1556830736
H       -2.8890040819   -5.2201095335    2.3538817968
38   
Iteration 7 Energy -1070.21569786
O       -0.4016396291    2.5955492831    2.4617880160
C       -0.0848796260    1.7187060151    1.7156475535
O       -0.9832192011    0.9079463580    1.0996497704
C       -0.3574935298   -0.0959139332    0.2683268528
C        1.1181578135    0.2350647629    0.3938991197
C        1.2612902684    1.3034211487    1.2604050765
C        2.5008513854    1.8485497939    1.5720335006
C        3.6207679658    1.2799400548    0.9767065675
C        3.4829071831    0.2029647592    0.0922955267
C        2.2325578589   -0.3301867674   -0.2127394154
C       -0.8220204101    0.0942423977   -1.1693551373
C       -0.6466682117   -0.9262279956   -2.1031208006
C       -0.9957188156   -0.7449143112   -3.4363368458
C       -1.5383787923    0.4702331251   -3.8568874699
C       -1.7263636432    1.4938618192   -2.9273563231
C       -1.3679910809    1.3043231167   -1.5998042571
O       -1.9020313304    0.7013809187   -5.1381043622
C       -0.7445287665   -1.4537430124    0.8337191470
C        0.1404009926   -2.2609363248    1.5488397535
C       -0.2737136752   -3.4664421747    2.1025349716
C       -1.5967866349   -3.8811550472    1.9597160312
C       -2.4966235873   -3.0752609574    1.2565021904
C       -2.0687028618   -1.8781774109    0.7023340656
O       -1.9570787782   -5.0590650456    2.5133944677
H        2.5735283188    2.6940278146    2.2585174681
H        4.6152175829    1.6753747654    1.1921509027
H        4.3747293605   -0.2250277791   -0.3705334941
H        2.1385205127   -1.1643726328   -0.9098340945
H       -0.2431156458   -1.8897263566   -1.7859676317
H       -0.8544700134   -1.5571657598   -4.1550881875
H       -2.1607758098    2.4353410895   -3.2663367156
H       -1.5292806002    2.1067816095   -0.8801291088
H       -1.7230948252   -0.0800806598   -5.6740383597
H        1.1769483119   -1.9508700021    1.6833837323
H        0.4178481871   -4.1012841643    2.6579483711
H       -3.5381891304   -3.3902648283    1.1457074495
H       -2.7795309268   -1.2553357534    0.1568034549
H       -2.8949521887   -5.2202369918    2.3563732354
38   
Iteration 8 Energy -1070.21570387
O       -0.4024670460    2.5932791667    2.4655276217
C       -0.0863311845    1.7181617818    1.7170116285
O       -0.9842806437    0.9101742207    1.0972259095
C       -0.3564211191   -0.0937827184    0.2672630435
C        1.1197900980    0.2352952903    0.3925904512
C        1.2594273854    1.3012515190    1.2621971704
C        2.4988606811    1.8446522975    1.5765860206
C        3.6199307257    1.2778738099    0.9812065106
C        3.4854305311    0.2035515049    0.0929831061
C        2.2350022908   -0.3281259074   -0.2146829283
C       -0.8211553051    0.0948528037   -1.1701454362
C       -0.6453742920   -0.9274745583   -2.1017828373
C       -0.9958435101   -0.7467117905   -3.4347013327
C       -1.5392224450    0.4674819603   -3.8569560599
C       -1.7273245665    1.4925901037   -2.9291654208
C       -1.3677684975    1.3043018648   -1.6018341577
O       -1.9034980137    0.6964889453   -5.1383364886
C       -0.7443002125   -1.4512802514    0.8326510561
C        0.1419870226   -2.2611827127    1.5429968446
C       -0.2710259317   -3.4670385761    2.0967349765
C       -1.5953401103   -3.8788951663    1.9581992087
C       -2.4961593755   -3.0700744934    1.2595874196
C       -2.0698893929   -1.8725266354    0.7052048152
O       -1.9557801587   -5.0570331990    2.5112478972
H        2.5706409448    2.6882340546    2.2653916871
H        4.6137026575    1.6732784724    1.1996230997
H        4.3781324915   -0.2226443074   -0.3698483927
H        2.1416506125   -1.1600795413   -0.9144393327
H       -0.2412984885   -1.8904511495   -1.7836732378
H       -0.8548490835   -1.5596572031   -4.1526311807
H       -2.1622606385    2.4334355511   -3.2691744790
H       -1.5284022343    2.1075123784   -0.8828650014
H       -1.7244932673   -0.0855057108   -5.6734589258
H        1.1794716830   -1.9528342591    1.6739158524
H        0.4217461281   -4.1037804584    2.6484200032
H       -3.5385017151   -3.3835608585    1.1523987401
H       -2.7818893641   -1.2477718858    0.1633993270
H       -2.8947179670   -5.2160261397    2.3584903759
38   
Iteration 9 Energy -1070.21571390
O       -0.4036297467    2.5883580541    2.4706864882
C       -0.0855931663    1.7162823831    1.7195227430
O       -0.9836160534    0.9121738740    1.0949308226
C       -0.3542694503   -0.0919085207    0.2662981007
C        1.1217558090    0.2375456844    0.3923312501
C        1.2609525930    1.3004484806    1.2657357474
C        2.4999551136    1.8431558660    1.5832695447
C        3.6223656330    1.2798044091    0.9872003938
C        3.4860744350    0.2091218479    0.0948974397
C        2.2369891838   -0.3233801556   -0.2170330930
C       -0.8194857644    0.0943114493   -1.1711225381
C       -0.6436966971   -0.9285717061   -2.1021981785
C       -0.9952546304   -0.7506505395   -3.4352435912
C       -1.5402172059    0.4624778010   -3.8582654787
C       -1.7283573670    1.4881146978   -2.9310234626
C       -1.3676385990    1.3027516625   -1.6036256369
O       -1.9059458149    0.6899851304   -5.1394641962
C       -0.7421911227   -1.4492233445    0.8325035778
C        0.1451384056   -2.2639632343    1.5358013674
C       -0.2701803170   -3.4697059287    2.0882068468
C       -1.5965114281   -3.8770368878    1.9560798843
C       -2.4983135386   -3.0633703894    1.2644184856
C       -2.0698151593   -1.8660618341    0.7113399488
O       -1.9578425895   -5.0553998490    2.5080017452
H        2.5704468333    2.6842993277    2.2751519278
H        4.6160585976    1.6744164556    1.2074913083
H        4.3790431948   -0.2149056954   -0.3693183257
H        2.1448923813   -1.1524153557   -0.9204020493
H       -0.2384769038   -1.8907373698   -1.7831783425
H       -0.8539933166   -1.5644722731   -4.1521265591
H       -2.1645613034    2.4280068859   -3.2719909096
H       -1.5281331925    2.1068017699   -0.8855693556
H       -1.7266756277   -0.0921328057   -5.6742713048
H        1.1844205097   -1.9599209398    1.6622204633
H        0.4231185679   -4.1104609549    2.6345224760
H       -3.5423263603   -3.3727782557    1.1617106693
H       -2.7822504633   -1.2372660918    0.1748410418
H       -2.8983633690   -5.2104557419    2.3612220636
38   
Iteration 10 Energy -1070.21572328
O       -0.4045034934    2.5834029473    2.4778524218
C       -0.0852094110    1.7144181162    1.7236902186
O       -0.9826223906    0.9148903163    1.0919989044
C       -0.3527272571   -0.0897464273    0.2647150796
C        1.1225056645    0.2408963247    0.3932254407
C        1.2624492351    1.3002932506    1.2713989403
C        2.5005305729    1.8428258344    1.5930959715
C        3.6214284456    1.2802517029    0.9938794278
C        3.4859475521    0.2138446749    0.0965206406
C        2.2374152153   -0.3176269998   -0.2187470536
C       -0.8176184264    0.0937032639   -1.1733175542
C       -0.6417452952   -0.9302451770   -2.1031387220
C       -0.9938347016   -0.7538744528   -3.4362985894
C       -1.5396789550    0.4580535779   -3.8616684615
C       -1.7279538909    1.4846481057   -2.9354452083
C       -1.3666045526    1.3010230703   -1.6079537332
O       -1.9059927038    0.6834187340   -5.1431281761
C       -0.7404069594   -1.4468802580    0.8324494005
C        0.1488877528   -2.2683331161    1.5251953149
C       -0.2669748091   -3.4743653782    2.0769110151
C       -1.5960676645   -3.8756889813    1.9550136646
C       -2.4995727880   -3.0549690473    1.2738002726
C       -2.0708077386   -1.8576354094    0.7211421184
O       -1.9581534785   -5.0544407206    2.5057467704
H        2.5711260306    2.6811418056    2.2885155690
H        4.6152883346    1.6733327981    1.2159713155
H        4.3791932111   -0.2076985148   -0.3694229189
H        2.1455243009   -1.1430989020   -0.9263704009
H       -0.2362402045   -1.8919318768   -1.7830208751
H       -0.8523390960   -1.5687154109   -4.1519836819
H       -2.1647672623    2.4238866247   -3.2774758396
H       -1.5270446273    2.1059827540   -0.8909251747
H       -1.7263813830   -0.0993550181   -5.6768788565
H        1.1905642890   -1.9694743743    1.6439328337
H        0.4282236091   -4.1200225054    2.6149953333
H       -3.5458090177   -3.3593151803    1.1788040681
H       -2.7849702444   -1.2238526269    0.1928288267
H       -2.9008841936   -5.2040288088    2.3676581134
38   
Iteration 11 Energy -1070.21573571
O       -0.4054303464    2.5776341410    2.4887801295
C       -0.0863621168    1.7125195913    1.7300094263
O       -0.9824889579    0.9189176729    1.0886529915
C       -0.3517277404   -0.0862127886    0.2626232244
C        1.1229212306    0.2447022282    0.3941239901
C        1.2617703770    1.2987887381    1.2788967090
C        2.4996608745    1.8390039239    1.6049248484
C        3.6219502758    1.2808942317    1.0040760174
C        3.4872517566    0.2203929944    0.0996705951
C        2.2389497723   -0.3090828509   -0.2201426549
C       -0.8161661086    0.0945991381   -1.1758561853
C       -0.6411813153   -0.9325266495   -2.1022866399
C       -0.9926073647   -0.7607272460   -3.4362089009
C       -1.5375367664    0.4505939443   -3.8645432828
C       -1.7253295675    1.4806088595   -2.9419044070
C       -1.3642776182    1.3011630093   -1.6137794863
O       -1.9038090568    0.6722550402   -5.1466581004
C       -0.7394083714   -1.4431689983    0.8315565666
C        0.1548707486   -2.2734370155    1.5068245531
C       -0.2609312641   -3.4802447338    2.0572665633
C       -1.5940797891   -3.8723976121    1.9513962582
C       -2.5026995107   -3.0428250091    1.2876680910
C       -2.0738027668   -1.8452098144    0.7360697163
O       -1.9556629467   -5.0521646478    2.5003481645
H        2.5692116751    2.6732685089    2.3052780810
H        4.6154374909    1.6729078200    1.2298515824
H        4.3809088138   -0.1977821644   -0.3685030806
H        2.1480399047   -1.1295052503   -0.9337729271
H       -0.2369337592   -1.8935972624   -1.7786818750
H       -0.8517776744   -1.5779602686   -4.1493424919
H       -2.1614898741    2.4189825351   -3.2871932198
H       -1.5238980829    2.1083697302   -0.8990775374
H       -1.7247320629   -0.1123861900   -5.6779423110
H        1.1998701578   -1.9814372234    1.6128342504
H        0.4375946767   -4.1332701219    2.5820176508
H       -3.5519922197   -3.3404363710    1.2055366681
H       -2.7909842341   -1.2038202165    0.2211263978
H       -2.9014420751   -5.1945033643    2.3757272358
38   
Iteration 12 Energy -1070.21574449
O       -0.4130968171    2.5701921885    2.4967420461
C       -0.0888870672    1.7103687085    1.7342766061
O       -0.9831607209    0.9221878385    1.0838572916
C       -0.3488411812   -0.0832198746    0.2609360643
C        1.1252007585    0.2499255181    0.3955848375
C        1.2609740607    1.2987973505    1.2865649839
C        2.4981405349    1.8377476487    1.6168752301
C        3.6231182442    1.2857818020    1.0148052677
C        3.4925087383    0.2311034549    0.1029493255
C        2.2440345029   -0.2964429877   -0.2203000661
C       -0.8125748454    0.0933064221   -1.1778715255
C       -0.6408424570   -0.9376424421   -2.1005943948
C       -0.9923409969   -0.7690878946   -3.4349330771
C       -1.5343879625    0.4421607889   -3.8671243085
C       -1.7192173730    1.4758773923   -2.9480282566
C       -1.3579087442    1.2997274790   -1.6195625267
O       -1.9007464820    0.6603310777   -5.1498430643
C       -0.7359689933   -1.4397566724    0.8319121574
C        0.1620435233   -2.2840473825    1.4840567765
C       -0.2552004353   -3.4916276388    2.0322538890
C       -1.5935835424   -3.8701566489    1.9472162287
C       -2.5059753011   -3.0264863094    1.3065548909
C       -2.0756346814   -1.8286549211    0.7569290157
O       -1.9568284858   -5.0509309234    2.4930765335
H        2.5653490827    2.6681487675    2.3219632387
H        4.6153910097    1.6784707883    1.2448293128
H        4.3872031947   -0.1824630799   -0.3674175646
H        2.1549130709   -1.1116087782   -0.9401081401
H       -0.2394581229   -1.8988217426   -1.7737082408
H       -0.8541319325   -1.5890563409   -4.1454220524
H       -2.1532099584    2.4141917614   -3.2961959011
H       -1.5148868326    2.1095976394   -0.9072364267
H       -1.7239256704   -0.1267577190   -5.6782523620
H        1.2114400423   -2.0028836420    1.5739997916
H        0.4464401686   -4.1552867851    2.5392053018
H       -3.5593651341   -3.3135147567    1.2409108352
H       -2.7955151077   -1.1761770237    0.2598842833
H       -2.9061757612   -5.1824953314    2.3848774208
38   
Iteration 13 Energy -1070.21575186
O       -0.4155026832    2.5692223480    2.4997350772
C       -0.0915997172    1.7105613471    1.7359249510
O       -0.9844755320    0.9238070575    1.0817391586
C       -0.3483552781   -0.0817753026    0.2605656649
C        1.1254102447    0.2517523545    0.3969024488
C        1.2589375375    1.2991170893    1.2901557276
C        2.4952040114    1.8384777051    1.6232706562
C        3.6209978609    1.2883709852    1.0210736420
C        3.4921098586    0.2358304043    0.1066036760
C        2.2448094659   -0.2925104618   -0.2196948883
C       -0.8107265082    0.0929393517   -1.1786179918
C       -0.6432899322   -0.9411000238   -2.0986279653
C       -0.9936018687   -0.7740025587   -3.4334772914
C       -1.5299414604    0.4386452139   -3.8687288936
C       -1.7104758435    1.4755039086   -2.9523697076
C       -1.3503565077    1.3007932366   -1.6234318157
O       -1.8947403331    0.6553902615   -5.1521044000
C       -0.7358602350   -1.4378580724    0.8320089467
C        0.1666892445   -2.2893730206    1.4678615278
C       -0.2493939051   -3.4979569856    2.0149139584
C       -1.5905185103   -3.8693240924    1.9447758294
C       -2.5070769088   -3.0179811551    1.3202873949
C       -2.0785018043   -1.8192425997    0.7714832263
O       -1.9526143509   -5.0511722728    2.4890526478
H        2.5610908444    2.6676278338    2.3299884959
H        4.6127390077    1.6812908429    1.2529074519
H        4.3877323929   -0.1755886361   -0.3638513732
H        2.1569125142   -1.1056726388   -0.9419632143
H       -0.2463420650   -1.9032322977   -1.7691580701
H       -0.8589910477   -1.5962480231   -4.1420061096
H       -2.1401305362    2.4149218008   -3.3029168912
H       -1.5038835870    2.1130836999   -0.9131109040
H       -1.7214503473   -0.1338818883   -5.6783019542
H        1.2184022870   -2.0134479885    1.5460209545
H        0.4554026361   -4.1675913008    2.5094628890
H       -3.5625332453   -3.2998374125    1.2667665762
H       -2.8012443554   -1.1603858388    0.2871371622
H       -2.9037619591   -5.1775950990    2.3916906060
38   
Iteration 14 Energy -1070.21575868
O       -0.4191588036    2.5706471182    2.5041155911
C       -0.0947914620    1.7122744077    1.7401114349
O       -0.9849892896    0.9243342515    1.0835477111
C       -0.3459084528   -0.0801560301    0.2633554350
C        1.1270044634    0.2565252327    0.4003898660
C        1.2567032707    1.3037077826    1.2946763319
C        2.4910814967    1.8470011716    1.6284205355
C        3.6180845313    1.3006423870    1.0251840005
C        3.4924398272    0.2491072824    0.1092217625
C        2.2473253840   -0.2835094760   -0.2182018864
C       -0.8070272769    0.0925059573   -1.1764872574
C       -0.6484445759   -0.9479021210   -2.0907875215