38   
Iteration 19 Energy -1070.21576961
O       -0.4323690102    2.5784973378    2.4971761283
C       -0.1013875475    1.7181122967    1.7382536790
O       -0.9879161387    0.9229607753    1.0854699272
C       -0.3438115458   -0.0808861722    0.2685308902
C        1.1273357582    0.2616397097    0.4073270854
C        1.2525930069    1.3137170843    1.2963627009
C        2.4845826927    1.8633536947    1.6284318913
C        3.6144421670    1.3190594876    1.0286151332
C        3.4934816841    0.2631588730    0.1169801601
C        2.2505158412   -0.2756695401   -0.2086397230
C       -0.8013447364    0.0892573734   -1.1733410460
C       -0.6665823720   -0.9590393962   -2.0820607916
C       -1.0091813262   -0.7940584870   -3.4195351564
C       -1.5045261976    0.4306257731   -3.8684667577
C       -1.6518513119    1.4827279182   -2.9630744776
C       -1.2995686492    1.3100273786   -1.6321807743
O       -1.8601403934    0.6461971248   -5.1545933654
C       -0.7286404242   -1.4373743077    0.8400226194
C        0.1835113448   -2.3206022438    1.4152555275
C       -0.2326557539   -3.5338371957    1.9526374274
C       -1.5825956973   -3.8778864838    1.9343867754
C       -2.5085656529   -2.9942321515    1.3713715202
C       -2.0801433498   -1.7916789380    0.8312923587
O       -1.9442867661   -5.0647965026    2.4680154574
H        2.5441204342    2.6958245705    2.3318075884
H        4.6032191980    1.7199032641    1.2594999227
H        4.3923076546   -0.1424197675   -0.3524169143
H        2.1681221579   -1.0896786499   -0.9307828415
H       -0.3004352843   -1.9295968425   -1.7421476932
H       -0.9005841601   -1.6276681561   -4.1191942896
H       -2.0496841255    2.4320749232   -3.3242622296
H       -1.4276372439    2.1350733064   -0.9314334504
H       -1.7138790597   -0.1541415743   -5.6723009506
H        1.2427932296   -2.0665304178    1.4539352855
H        0.4796189434   -4.2280232797    2.4004006182
H       -3.5709944623   -3.2538878937    1.3594481148
H       -2.8096671862   -1.1069011392    0.3955062934
H       -2.9007864898   -5.1724680888    2.4069881827